 5   5   0   0
  0.1016023E+03  0.4007670E-09  0.4007670E-09  0.3652238E-08  0.5000000E-15
  1.000000000000000E-004
  CAR 
 La2C1Cl2                                
     10.00000000    -10.00000000 9999     -2.74242348      1.00000000
    -10.000  0.0000E+00  0.0000E+00  0.1000E+02  0.1000E+02
     -9.998  0.0000E+00  0.0000E+00  0.1000E+02  0.1000E+02
     -9.996  0.0000E+00  0.0000E+00  0.1000E+02  0.1000E+02
     -9.994  0.0000E+00  0.0000E+00  0.1000E+02  0.1000E+02
     -9.992  0.0000E+00  0.0000E+00  0.1000E+02  0.1000E+02
     -9.990  0.0000E+00  0.0000E+00  0.1000E+02  0.1000E+02
     -9.988  0.0000E+00  0.0000E+00  0.1000E+02  0.1000E+02
     -9.986  0.0000E+00  0.0000E+00  0.1000E+02  0.1000E+02
     -9.984  0.0000E+00  0.0000E+00  0.1000E+02  0.1000E+02
     -9.982  0.0000E+00  0.0000E+00  0.1000E+02  0.1000E+02
     -9.980  0.0000E+00  0.0000E+00  0.1000E+02  0.1000E+02
     -9.978  0.0000E+00  0.0000E+00  0.1000E+02  0.1000E+02
     -9.976  0.0000E+00  0.0000E+00  0.1000E+02  0.1000E+02
     -9.974  0.0000E+00  0.0000E+00  0.1000E+02  0.1000E+02
     -9.972  0.0000E+00  0.0000E+00  0.1000E+02  0.1000E+02
     -9.970  0.0000E+00  0.0000E+00  0.1000E+02  0.1000E+02
     -9.968  0.0000E+00  0.0000E+00  0.1000E+02  0.1000E+02
     -9.966  0.3082E+00  0.3099E+00  0.1000E+02  0.1000E+02
     -9.964  0.7243E+00  0.7260E+00  0.1000E+02  0.1000E+02
     -9.962  0.1140E+01  0.1142E+01  0.1000E+02  0.1000E+02
     -9.960  0.1556E+01  0.1558E+01  0.1001E+02  0.1001E+02
     -9.958  0.1972E+01  0.1974E+01  0.1001E+02  0.1001E+02
     -9.956  0.2389E+01  0.2390E+01  0.1001E+02  0.1001E+02
     -9.954  0.2805E+01  0.2806E+01  0.1002E+02  0.1002E+02
     -9.952  0.3221E+01  0.3222E+01  0.1002E+02  0.1002E+02
     -9.950  0.3637E+01  0.3639E+01  0.1003E+02  0.1003E+02
     -9.948  0.4053E+01  0.4055E+01  0.1004E+02  0.1004E+02
     -9.946  0.4469E+01  0.4471E+01  0.1005E+02  0.1005E+02
     -9.944  0.4885E+01  0.4887E+01  0.1006E+02  0.1006E+02
     -9.942  0.5194E+01  0.5196E+01  0.1007E+02  0.1007E+02
     -9.940  0.5590E+01  0.5592E+01  0.1008E+02  0.1008E+02
     -9.938  0.5986E+01  0.5988E+01  0.1009E+02  0.1009E+02
     -9.936  0.6382E+01  0.6384E+01  0.1010E+02  0.1010E+02
     -9.934  0.6778E+01  0.6780E+01  0.1012E+02  0.1012E+02
     -9.932  0.7175E+01  0.7176E+01  0.1013E+02  0.1013E+02
     -9.930  0.7571E+01  0.7572E+01  0.1014E+02  0.1014E+02
     -9.928  0.7967E+01  0.7968E+01  0.1016E+02  0.1016E+02
     -9.926  0.8363E+01  0.8364E+01  0.1018E+02  0.1018E+02
     -9.924  0.8759E+01  0.8760E+01  0.1019E+02  0.1019E+02
     -9.922  0.9155E+01  0.9156E+01  0.1021E+02  0.1021E+02
     -9.920  0.9551E+01  0.9552E+01  0.1023E+02  0.1023E+02
     -9.918  0.1468E+02  0.1469E+02  0.1025E+02  0.1025E+02
     -9.916  0.1621E+02  0.1622E+02  0.1028E+02  0.1028E+02
     -9.914  0.1775E+02  0.1775E+02  0.1032E+02  0.1032E+02
     -9.912  0.1928E+02  0.1928E+02  0.1035E+02  0.1035E+02
     -9.910  0.2081E+02  0.2082E+02  0.1039E+02  0.1039E+02
     -9.908  0.2234E+02  0.2235E+02  0.1044E+02  0.1044E+02
     -9.906  0.3736E+02  0.3737E+02  0.1049E+02  0.1049E+02
     -9.904  0.3876E+02  0.3876E+02  0.1056E+02  0.1056E+02
     -9.902  0.4015E+02  0.4016E+02  0.1064E+02  0.1064E+02
     -9.900  0.4928E+02  0.4927E+02  0.1074E+02  0.1074E+02
     -9.898  0.4545E+02  0.4543E+02  0.1083E+02  0.1083E+02
     -9.896  0.4872E+02  0.4875E+02  0.1092E+02  0.1092E+02
     -9.894  0.1020E+02  0.1020E+02  0.1100E+02  0.1100E+02
     -9.892  0.0000E+00  0.0000E+00  0.1100E+02  0.1100E+02
     -9.890  0.0000E+00  0.0000E+00  0.1100E+02  0.1100E+02
     -9.888  0.0000E+00  0.0000E+00  0.1100E+02  0.1100E+02
     -9.886  0.0000E+00  0.0000E+00  0.1100E+02  0.1100E+02
     -9.884  0.0000E+00  0.0000E+00  0.1100E+02  0.1100E+02
     -9.882  0.0000E+00  0.0000E+00  0.1100E+02  0.1100E+02
     -9.880  0.0000E+00  0.0000E+00  0.1100E+02  0.1100E+02
     -9.878  0.0000E+00  0.0000E+00  0.1100E+02  0.1100E+02
     -9.876  0.0000E+00  0.0000E+00  0.1100E+02  0.1100E+02
     -9.874  0.0000E+00  0.0000E+00  0.1100E+02  0.1100E+02
     -9.872  0.0000E+00  0.0000E+00  0.1100E+02  0.1100E+02
     -9.870  0.0000E+00  0.0000E+00  0.1100E+02  0.1100E+02
     -9.868  0.0000E+00  0.0000E+00  0.1100E+02  0.1100E+02
     -9.866  0.0000E+00  0.0000E+00  0.1100E+02  0.1100E+02
     -9.864  0.0000E+00  0.0000E+00  0.1100E+02  0.1100E+02
     -9.862  0.0000E+00  0.0000E+00  0.1100E+02  0.1100E+02
     -9.860  0.0000E+00  0.0000E+00  0.1100E+02  0.1100E+02
     -9.858  0.0000E+00  0.0000E+00  0.1100E+02  0.1100E+02
     -9.856  0.0000E+00  0.0000E+00  0.1100E+02  0.1100E+02
     -9.854  0.0000E+00  0.0000E+00  0.1100E+02  0.1100E+02
     -9.852  0.0000E+00  0.0000E+00  0.1100E+02  0.1100E+02
     -9.850  0.0000E+00  0.0000E+00  0.1100E+02  0.1100E+02
     -9.848  0.0000E+00  0.0000E+00  0.1100E+02  0.1100E+02
     -9.846  0.0000E+00  0.0000E+00  0.1100E+02  0.1100E+02
     -9.844  0.0000E+00  0.0000E+00  0.1100E+02  0.1100E+02
     -9.842  0.0000E+00  0.0000E+00  0.1100E+02  0.1100E+02
     -9.840  0.0000E+00  0.0000E+00  0.1100E+02  0.1100E+02
     -9.838  0.0000E+00  0.0000E+00  0.1100E+02  0.1100E+02
     -9.836  0.0000E+00  0.0000E+00  0.1100E+02  0.1100E+02
     -9.834  0.0000E+00  0.0000E+00  0.1100E+02  0.1100E+02
     -9.832  0.0000E+00  0.0000E+00  0.1100E+02  0.1100E+02
     -9.830  0.0000E+00  0.0000E+00  0.1100E+02  0.1100E+02
     -9.828  0.0000E+00  0.0000E+00  0.1100E+02  0.1100E+02
     -9.826  0.0000E+00  0.0000E+00  0.1100E+02  0.1100E+02
     -9.824  0.0000E+00  0.0000E+00  0.1100E+02  0.1100E+02
     -9.822  0.0000E+00  0.0000E+00  0.1100E+02  0.1100E+02
     -9.820  0.0000E+00  0.0000E+00  0.1100E+02  0.1100E+02
     -9.818  0.0000E+00  0.0000E+00  0.1100E+02  0.1100E+02
     -9.816  0.0000E+00  0.0000E+00  0.1100E+02  0.1100E+02
     -9.814  0.0000E+00  0.0000E+00  0.1100E+02  0.1100E+02
     -9.812  0.0000E+00  0.0000E+00  0.1100E+02  0.1100E+02
     -9.810  0.0000E+00  0.0000E+00  0.1100E+02  0.1100E+02
     -9.808  0.0000E+00  0.0000E+00  0.1100E+02  0.1100E+02
     -9.806  0.0000E+00  0.0000E+00  0.1100E+02  0.1100E+02
     -9.804  0.0000E+00  0.0000E+00  0.1100E+02  0.1100E+02
     -9.802  0.0000E+00  0.0000E+00  0.1100E+02  0.1100E+02
     -9.800  0.0000E+00  0.0000E+00  0.1100E+02  0.1100E+02
     -9.798  0.0000E+00  0.0000E+00  0.1100E+02  0.1100E+02
     -9.796  0.0000E+00  0.0000E+00  0.1100E+02  0.1100E+02
     -9.794  0.0000E+00  0.0000E+00  0.1100E+02  0.1100E+02
     -9.792  0.0000E+00  0.0000E+00  0.1100E+02  0.1100E+02
     -9.790  0.0000E+00  0.0000E+00  0.1100E+02  0.1100E+02
     -9.788  0.0000E+00  0.0000E+00  0.1100E+02  0.1100E+02
     -9.786  0.0000E+00  0.0000E+00  0.1100E+02  0.1100E+02
     -9.784  0.0000E+00  0.0000E+00  0.1100E+02  0.1100E+02
     -9.782  0.0000E+00  0.0000E+00  0.1100E+02  0.1100E+02
     -9.780  0.0000E+00  0.0000E+00  0.1100E+02  0.1100E+02
     -9.778  0.0000E+00  0.0000E+00  0.1100E+02  0.1100E+02
     -9.776  0.0000E+00  0.0000E+00  0.1100E+02  0.1100E+02
     -9.774  0.0000E+00  0.0000E+00  0.1100E+02  0.1100E+02
     -9.772  0.0000E+00  0.0000E+00  0.1100E+02  0.1100E+02
     -9.770  0.0000E+00  0.0000E+00  0.1100E+02  0.1100E+02
     -9.768  0.0000E+00  0.0000E+00  0.1100E+02  0.1100E+02
     -9.766  0.0000E+00  0.0000E+00  0.1100E+02  0.1100E+02
     -9.764  0.0000E+00  0.0000E+00  0.1100E+02  0.1100E+02
     -9.762  0.0000E+00  0.0000E+00  0.1100E+02  0.1100E+02
     -9.760  0.0000E+00  0.0000E+00  0.1100E+02  0.1100E+02
     -9.758  0.0000E+00  0.0000E+00  0.1100E+02  0.1100E+02
     -9.756  0.0000E+00  0.0000E+00  0.1100E+02  0.1100E+02
     -9.754  0.0000E+00  0.0000E+00  0.1100E+02  0.1100E+02
     -9.752  0.0000E+00  0.0000E+00  0.1100E+02  0.1100E+02
     -9.750  0.0000E+00  0.0000E+00  0.1100E+02  0.1100E+02
     -9.748  0.0000E+00  0.0000E+00  0.1100E+02  0.1100E+02
     -9.746  0.0000E+00  0.0000E+00  0.1100E+02  0.1100E+02
     -9.744  0.0000E+00  0.0000E+00  0.1100E+02  0.1100E+02
     -9.742  0.0000E+00  0.0000E+00  0.1100E+02  0.1100E+02
     -9.740  0.0000E+00  0.0000E+00  0.1100E+02  0.1100E+02
     -9.738  0.0000E+00  0.0000E+00  0.1100E+02  0.1100E+02
     -9.736  0.0000E+00  0.0000E+00  0.1100E+02  0.1100E+02
     -9.734  0.0000E+00  0.0000E+00  0.1100E+02  0.1100E+02
     -9.732  0.0000E+00  0.0000E+00  0.1100E+02  0.1100E+02
     -9.730  0.0000E+00  0.0000E+00  0.1100E+02  0.1100E+02
     -9.728  0.0000E+00  0.0000E+00  0.1100E+02  0.1100E+02
     -9.726  0.0000E+00  0.0000E+00  0.1100E+02  0.1100E+02
     -9.724  0.0000E+00  0.0000E+00  0.1100E+02  0.1100E+02
     -9.722  0.0000E+00  0.0000E+00  0.1100E+02  0.1100E+02
     -9.720  0.0000E+00  0.0000E+00  0.1100E+02  0.1100E+02
     -9.718  0.0000E+00  0.0000E+00  0.1100E+02  0.1100E+02
     -9.716  0.0000E+00  0.0000E+00  0.1100E+02  0.1100E+02
     -9.714  0.0000E+00  0.0000E+00  0.1100E+02  0.1100E+02
     -9.712  0.0000E+00  0.0000E+00  0.1100E+02  0.1100E+02
     -9.710  0.0000E+00  0.0000E+00  0.1100E+02  0.1100E+02
     -9.708  0.0000E+00  0.0000E+00  0.1100E+02  0.1100E+02
     -9.706  0.0000E+00  0.0000E+00  0.1100E+02  0.1100E+02
     -9.704  0.0000E+00  0.0000E+00  0.1100E+02  0.1100E+02
     -9.702  0.0000E+00  0.0000E+00  0.1100E+02  0.1100E+02
     -9.700  0.0000E+00  0.0000E+00  0.1100E+02  0.1100E+02
     -9.698  0.0000E+00  0.0000E+00  0.1100E+02  0.1100E+02
     -9.696  0.0000E+00  0.0000E+00  0.1100E+02  0.1100E+02
     -9.694  0.0000E+00  0.0000E+00  0.1100E+02  0.1100E+02
     -9.692  0.0000E+00  0.0000E+00  0.1100E+02  0.1100E+02
     -9.690  0.0000E+00  0.0000E+00  0.1100E+02  0.1100E+02
     -9.688  0.0000E+00  0.0000E+00  0.1100E+02  0.1100E+02
     -9.686  0.0000E+00  0.0000E+00  0.1100E+02  0.1100E+02
     -9.684  0.0000E+00  0.0000E+00  0.1100E+02  0.1100E+02
     -9.682  0.0000E+00  0.0000E+00  0.1100E+02  0.1100E+02
     -9.680  0.0000E+00  0.0000E+00  0.1100E+02  0.1100E+02
     -9.678  0.0000E+00  0.0000E+00  0.1100E+02  0.1100E+02
     -9.676  0.0000E+00  0.0000E+00  0.1100E+02  0.1100E+02
     -9.674  0.0000E+00  0.0000E+00  0.1100E+02  0.1100E+02
     -9.672  0.0000E+00  0.0000E+00  0.1100E+02  0.1100E+02
     -9.670  0.0000E+00  0.0000E+00  0.1100E+02  0.1100E+02
     -9.668  0.0000E+00  0.0000E+00  0.1100E+02  0.1100E+02
     -9.666  0.0000E+00  0.0000E+00  0.1100E+02  0.1100E+02
     -9.664  0.0000E+00  0.0000E+00  0.1100E+02  0.1100E+02
     -9.662  0.0000E+00  0.0000E+00  0.1100E+02  0.1100E+02
     -9.660  0.0000E+00  0.0000E+00  0.1100E+02  0.1100E+02
     -9.658  0.0000E+00  0.0000E+00  0.1100E+02  0.1100E+02
     -9.656  0.0000E+00  0.0000E+00  0.1100E+02  0.1100E+02
     -9.654  0.0000E+00  0.0000E+00  0.1100E+02  0.1100E+02
     -9.652  0.0000E+00  0.0000E+00  0.1100E+02  0.1100E+02
     -9.650  0.0000E+00  0.0000E+00  0.1100E+02  0.1100E+02
     -9.648  0.0000E+00  0.0000E+00  0.1100E+02  0.1100E+02
     -9.646  0.0000E+00  0.0000E+00  0.1100E+02  0.1100E+02
     -9.644  0.0000E+00  0.0000E+00  0.1100E+02  0.1100E+02
     -9.642  0.0000E+00  0.0000E+00  0.1100E+02  0.1100E+02
     -9.640  0.0000E+00  0.0000E+00  0.1100E+02  0.1100E+02
     -9.638  0.0000E+00  0.0000E+00  0.1100E+02  0.1100E+02
     -9.636  0.0000E+00  0.0000E+00  0.1100E+02  0.1100E+02
     -9.634  0.0000E+00  0.0000E+00  0.1100E+02  0.1100E+02
     -9.632  0.0000E+00  0.0000E+00  0.1100E+02  0.1100E+02
     -9.630  0.0000E+00  0.0000E+00  0.1100E+02  0.1100E+02
     -9.628  0.0000E+00  0.0000E+00  0.1100E+02  0.1100E+02
     -9.626  0.0000E+00  0.0000E+00  0.1100E+02  0.1100E+02
     -9.624  0.0000E+00  0.0000E+00  0.1100E+02  0.1100E+02
     -9.622  0.0000E+00  0.0000E+00  0.1100E+02  0.1100E+02
     -9.620  0.0000E+00  0.0000E+00  0.1100E+02  0.1100E+02
     -9.618  0.0000E+00  0.0000E+00  0.1100E+02  0.1100E+02
     -9.616  0.0000E+00  0.0000E+00  0.1100E+02  0.1100E+02
     -9.614  0.0000E+00  0.0000E+00  0.1100E+02  0.1100E+02
     -9.612  0.0000E+00  0.0000E+00  0.1100E+02  0.1100E+02
     -9.610  0.0000E+00  0.0000E+00  0.1100E+02  0.1100E+02
     -9.608  0.0000E+00  0.0000E+00  0.1100E+02  0.1100E+02
     -9.606  0.0000E+00  0.0000E+00  0.1100E+02  0.1100E+02
     -9.604  0.0000E+00  0.0000E+00  0.1100E+02  0.1100E+02
     -9.602  0.0000E+00  0.0000E+00  0.1100E+02  0.1100E+02
     -9.600  0.0000E+00  0.0000E+00  0.1100E+02  0.1100E+02
     -9.598  0.0000E+00  0.0000E+00  0.1100E+02  0.1100E+02
     -9.596  0.0000E+00  0.0000E+00  0.1100E+02  0.1100E+02
     -9.594  0.0000E+00  0.0000E+00  0.1100E+02  0.1100E+02
     -9.592  0.0000E+00  0.0000E+00  0.1100E+02  0.1100E+02
     -9.590  0.0000E+00  0.0000E+00  0.1100E+02  0.1100E+02
     -9.588  0.0000E+00  0.0000E+00  0.1100E+02  0.1100E+02
     -9.586  0.0000E+00  0.0000E+00  0.1100E+02  0.1100E+02
     -9.584  0.0000E+00  0.0000E+00  0.1100E+02  0.1100E+02
     -9.582  0.0000E+00  0.0000E+00  0.1100E+02  0.1100E+02
     -9.580  0.0000E+00  0.0000E+00  0.1100E+02  0.1100E+02
     -9.578  0.0000E+00  0.0000E+00  0.1100E+02  0.1100E+02
     -9.576  0.0000E+00  0.0000E+00  0.1100E+02  0.1100E+02
     -9.574  0.0000E+00  0.0000E+00  0.1100E+02  0.1100E+02
     -9.572  0.0000E+00  0.0000E+00  0.1100E+02  0.1100E+02
     -9.570  0.0000E+00  0.0000E+00  0.1100E+02  0.1100E+02
     -9.568  0.0000E+00  0.0000E+00  0.1100E+02  0.1100E+02
     -9.566  0.0000E+00  0.0000E+00  0.1100E+02  0.1100E+02
     -9.564  0.0000E+00  0.0000E+00  0.1100E+02  0.1100E+02
     -9.562  0.0000E+00  0.0000E+00  0.1100E+02  0.1100E+02
     -9.560  0.0000E+00  0.0000E+00  0.1100E+02  0.1100E+02
     -9.558  0.0000E+00  0.0000E+00  0.1100E+02  0.1100E+02
     -9.556  0.0000E+00  0.0000E+00  0.1100E+02  0.1100E+02
     -9.554  0.0000E+00  0.0000E+00  0.1100E+02  0.1100E+02
     -9.552  0.0000E+00  0.0000E+00  0.1100E+02  0.1100E+02
     -9.550  0.0000E+00  0.0000E+00  0.1100E+02  0.1100E+02
     -9.548  0.0000E+00  0.0000E+00  0.1100E+02  0.1100E+02
     -9.546  0.0000E+00  0.0000E+00  0.1100E+02  0.1100E+02
     -9.544  0.0000E+00  0.0000E+00  0.1100E+02  0.1100E+02
     -9.542  0.0000E+00  0.0000E+00  0.1100E+02  0.1100E+02
     -9.540  0.0000E+00  0.0000E+00  0.1100E+02  0.1100E+02
     -9.538  0.0000E+00  0.0000E+00  0.1100E+02  0.1100E+02
     -9.536  0.0000E+00  0.0000E+00  0.1100E+02  0.1100E+02
     -9.534  0.0000E+00  0.0000E+00  0.1100E+02  0.1100E+02
     -9.532  0.0000E+00  0.0000E+00  0.1100E+02  0.1100E+02
     -9.530  0.0000E+00  0.0000E+00  0.1100E+02  0.1100E+02
     -9.528  0.0000E+00  0.0000E+00  0.1100E+02  0.1100E+02
     -9.526  0.0000E+00  0.0000E+00  0.1100E+02  0.1100E+02
     -9.524  0.0000E+00  0.0000E+00  0.1100E+02  0.1100E+02
     -9.522  0.0000E+00  0.0000E+00  0.1100E+02  0.1100E+02
     -9.520  0.0000E+00  0.0000E+00  0.1100E+02  0.1100E+02
     -9.518  0.0000E+00  0.0000E+00  0.1100E+02  0.1100E+02
     -9.516  0.0000E+00  0.0000E+00  0.1100E+02  0.1100E+02
     -9.514  0.0000E+00  0.0000E+00  0.1100E+02  0.1100E+02
     -9.512  0.0000E+00  0.0000E+00  0.1100E+02  0.1100E+02
     -9.510  0.0000E+00  0.0000E+00  0.1100E+02  0.1100E+02
     -9.508  0.0000E+00  0.0000E+00  0.1100E+02  0.1100E+02
     -9.506  0.0000E+00  0.0000E+00  0.1100E+02  0.1100E+02
     -9.504  0.0000E+00  0.0000E+00  0.1100E+02  0.1100E+02
     -9.502  0.0000E+00  0.0000E+00  0.1100E+02  0.1100E+02
     -9.500  0.0000E+00  0.0000E+00  0.1100E+02  0.1100E+02
     -9.498  0.0000E+00  0.0000E+00  0.1100E+02  0.1100E+02
     -9.496  0.0000E+00  0.0000E+00  0.1100E+02  0.1100E+02
     -9.494  0.0000E+00  0.0000E+00  0.1100E+02  0.1100E+02
     -9.492  0.0000E+00  0.0000E+00  0.1100E+02  0.1100E+02
     -9.490  0.0000E+00  0.0000E+00  0.1100E+02  0.1100E+02
     -9.488  0.0000E+00  0.0000E+00  0.1100E+02  0.1100E+02
     -9.486  0.0000E+00  0.0000E+00  0.1100E+02  0.1100E+02
     -9.484  0.0000E+00  0.0000E+00  0.1100E+02  0.1100E+02
     -9.482  0.0000E+00  0.0000E+00  0.1100E+02  0.1100E+02
     -9.480  0.0000E+00  0.0000E+00  0.1100E+02  0.1100E+02
     -9.478  0.0000E+00  0.0000E+00  0.1100E+02  0.1100E+02
     -9.476  0.0000E+00  0.0000E+00  0.1100E+02  0.1100E+02
     -9.474  0.0000E+00  0.0000E+00  0.1100E+02  0.1100E+02
     -9.472  0.0000E+00  0.0000E+00  0.1100E+02  0.1100E+02
     -9.470  0.0000E+00  0.0000E+00  0.1100E+02  0.1100E+02
     -9.468  0.0000E+00  0.0000E+00  0.1100E+02  0.1100E+02
     -9.466  0.0000E+00  0.0000E+00  0.1100E+02  0.1100E+02
     -9.464  0.0000E+00  0.0000E+00  0.1100E+02  0.1100E+02
     -9.462  0.0000E+00  0.0000E+00  0.1100E+02  0.1100E+02
     -9.460  0.0000E+00  0.0000E+00  0.1100E+02  0.1100E+02
     -9.458  0.0000E+00  0.0000E+00  0.1100E+02  0.1100E+02
     -9.456  0.0000E+00  0.0000E+00  0.1100E+02  0.1100E+02
     -9.454  0.0000E+00  0.0000E+00  0.1100E+02  0.1100E+02
     -9.452  0.0000E+00  0.0000E+00  0.1100E+02  0.1100E+02
     -9.450  0.0000E+00  0.0000E+00  0.1100E+02  0.1100E+02
     -9.448  0.0000E+00  0.0000E+00  0.1100E+02  0.1100E+02
     -9.446  0.0000E+00  0.0000E+00  0.1100E+02  0.1100E+02
     -9.444  0.0000E+00  0.0000E+00  0.1100E+02  0.1100E+02
     -9.442  0.0000E+00  0.0000E+00  0.1100E+02  0.1100E+02
     -9.440  0.0000E+00  0.0000E+00  0.1100E+02  0.1100E+02
     -9.438  0.0000E+00  0.0000E+00  0.1100E+02  0.1100E+02
     -9.436  0.0000E+00  0.0000E+00  0.1100E+02  0.1100E+02
     -9.434  0.0000E+00  0.0000E+00  0.1100E+02  0.1100E+02
     -9.432  0.0000E+00  0.0000E+00  0.1100E+02  0.1100E+02
     -9.430  0.0000E+00  0.0000E+00  0.1100E+02  0.1100E+02
     -9.428  0.0000E+00  0.0000E+00  0.1100E+02  0.1100E+02
     -9.426  0.0000E+00  0.0000E+00  0.1100E+02  0.1100E+02
     -9.424  0.0000E+00  0.0000E+00  0.1100E+02  0.1100E+02
     -9.422  0.0000E+00  0.0000E+00  0.1100E+02  0.1100E+02
     -9.420  0.0000E+00  0.0000E+00  0.1100E+02  0.1100E+02
     -9.418  0.0000E+00  0.0000E+00  0.1100E+02  0.1100E+02
     -9.416  0.0000E+00  0.0000E+00  0.1100E+02  0.1100E+02
     -9.414  0.0000E+00  0.0000E+00  0.1100E+02  0.1100E+02
     -9.412  0.0000E+00  0.0000E+00  0.1100E+02  0.1100E+02
     -9.410  0.0000E+00  0.0000E+00  0.1100E+02  0.1100E+02
     -9.408  0.0000E+00  0.0000E+00  0.1100E+02  0.1100E+02
     -9.406  0.0000E+00  0.0000E+00  0.1100E+02  0.1100E+02
     -9.404  0.0000E+00  0.0000E+00  0.1100E+02  0.1100E+02
     -9.402  0.0000E+00  0.0000E+00  0.1100E+02  0.1100E+02
     -9.400  0.0000E+00  0.0000E+00  0.1100E+02  0.1100E+02
     -9.398  0.0000E+00  0.0000E+00  0.1100E+02  0.1100E+02
     -9.396  0.0000E+00  0.0000E+00  0.1100E+02  0.1100E+02
     -9.394  0.0000E+00  0.0000E+00  0.1100E+02  0.1100E+02
     -9.392  0.0000E+00  0.0000E+00  0.1100E+02  0.1100E+02
     -9.390  0.0000E+00  0.0000E+00  0.1100E+02  0.1100E+02
     -9.388  0.0000E+00  0.0000E+00  0.1100E+02  0.1100E+02
     -9.386  0.0000E+00  0.0000E+00  0.1100E+02  0.1100E+02
     -9.384  0.0000E+00  0.0000E+00  0.1100E+02  0.1100E+02
     -9.382  0.0000E+00  0.0000E+00  0.1100E+02  0.1100E+02
     -9.380  0.0000E+00  0.0000E+00  0.1100E+02  0.1100E+02
     -9.378  0.0000E+00  0.0000E+00  0.1100E+02  0.1100E+02
     -9.376  0.0000E+00  0.0000E+00  0.1100E+02  0.1100E+02
     -9.374  0.0000E+00  0.0000E+00  0.1100E+02  0.1100E+02
     -9.372  0.0000E+00  0.0000E+00  0.1100E+02  0.1100E+02
     -9.370  0.0000E+00  0.0000E+00  0.1100E+02  0.1100E+02
     -9.368  0.0000E+00  0.0000E+00  0.1100E+02  0.1100E+02
     -9.366  0.0000E+00  0.0000E+00  0.1100E+02  0.1100E+02
     -9.364  0.0000E+00  0.0000E+00  0.1100E+02  0.1100E+02
     -9.362  0.0000E+00  0.0000E+00  0.1100E+02  0.1100E+02
     -9.360  0.0000E+00  0.0000E+00  0.1100E+02  0.1100E+02
     -9.358  0.0000E+00  0.0000E+00  0.1100E+02  0.1100E+02
     -9.356  0.0000E+00  0.0000E+00  0.1100E+02  0.1100E+02
     -9.354  0.0000E+00  0.0000E+00  0.1100E+02  0.1100E+02
     -9.352  0.0000E+00  0.0000E+00  0.1100E+02  0.1100E+02
     -9.350  0.0000E+00  0.0000E+00  0.1100E+02  0.1100E+02
     -9.348  0.0000E+00  0.0000E+00  0.1100E+02  0.1100E+02
     -9.346  0.0000E+00  0.0000E+00  0.1100E+02  0.1100E+02
     -9.344  0.0000E+00  0.0000E+00  0.1100E+02  0.1100E+02
     -9.342  0.0000E+00  0.0000E+00  0.1100E+02  0.1100E+02
     -9.340  0.0000E+00  0.0000E+00  0.1100E+02  0.1100E+02
     -9.338  0.0000E+00  0.0000E+00  0.1100E+02  0.1100E+02
     -9.336  0.0000E+00  0.0000E+00  0.1100E+02  0.1100E+02
     -9.334  0.0000E+00  0.0000E+00  0.1100E+02  0.1100E+02
     -9.332  0.0000E+00  0.0000E+00  0.1100E+02  0.1100E+02
     -9.330  0.0000E+00  0.0000E+00  0.1100E+02  0.1100E+02
     -9.328  0.0000E+00  0.0000E+00  0.1100E+02  0.1100E+02
     -9.326  0.0000E+00  0.0000E+00  0.1100E+02  0.1100E+02
     -9.324  0.0000E+00  0.0000E+00  0.1100E+02  0.1100E+02
     -9.322  0.0000E+00  0.0000E+00  0.1100E+02  0.1100E+02
     -9.320  0.0000E+00  0.0000E+00  0.1100E+02  0.1100E+02
     -9.318  0.0000E+00  0.0000E+00  0.1100E+02  0.1100E+02
     -9.316  0.0000E+00  0.0000E+00  0.1100E+02  0.1100E+02
     -9.314  0.0000E+00  0.0000E+00  0.1100E+02  0.1100E+02
     -9.312  0.0000E+00  0.0000E+00  0.1100E+02  0.1100E+02
     -9.310  0.0000E+00  0.0000E+00  0.1100E+02  0.1100E+02
     -9.308  0.0000E+00  0.0000E+00  0.1100E+02  0.1100E+02
     -9.306  0.0000E+00  0.0000E+00  0.1100E+02  0.1100E+02
     -9.304  0.0000E+00  0.0000E+00  0.1100E+02  0.1100E+02
     -9.302  0.0000E+00  0.0000E+00  0.1100E+02  0.1100E+02
     -9.300  0.0000E+00  0.0000E+00  0.1100E+02  0.1100E+02
     -9.298  0.0000E+00  0.0000E+00  0.1100E+02  0.1100E+02
     -9.296  0.0000E+00  0.0000E+00  0.1100E+02  0.1100E+02
     -9.294  0.0000E+00  0.0000E+00  0.1100E+02  0.1100E+02
     -9.292  0.0000E+00  0.0000E+00  0.1100E+02  0.1100E+02
     -9.290  0.0000E+00  0.0000E+00  0.1100E+02  0.1100E+02
     -9.288  0.0000E+00  0.0000E+00  0.1100E+02  0.1100E+02
     -9.286  0.0000E+00  0.0000E+00  0.1100E+02  0.1100E+02
     -9.284  0.0000E+00  0.0000E+00  0.1100E+02  0.1100E+02
     -9.282  0.0000E+00  0.0000E+00  0.1100E+02  0.1100E+02
     -9.280  0.0000E+00  0.0000E+00  0.1100E+02  0.1100E+02
     -9.278  0.0000E+00  0.0000E+00  0.1100E+02  0.1100E+02
     -9.276  0.0000E+00  0.0000E+00  0.1100E+02  0.1100E+02
     -9.274  0.0000E+00  0.0000E+00  0.1100E+02  0.1100E+02
     -9.272  0.0000E+00  0.0000E+00  0.1100E+02  0.1100E+02
     -9.270  0.0000E+00  0.0000E+00  0.1100E+02  0.1100E+02
     -9.268  0.0000E+00  0.0000E+00  0.1100E+02  0.1100E+02
     -9.266  0.0000E+00  0.0000E+00  0.1100E+02  0.1100E+02
     -9.264  0.0000E+00  0.0000E+00  0.1100E+02  0.1100E+02
     -9.262  0.0000E+00  0.0000E+00  0.1100E+02  0.1100E+02
     -9.260  0.0000E+00  0.0000E+00  0.1100E+02  0.1100E+02
     -9.258  0.0000E+00  0.0000E+00  0.1100E+02  0.1100E+02
     -9.256  0.0000E+00  0.0000E+00  0.1100E+02  0.1100E+02
     -9.254  0.0000E+00  0.0000E+00  0.1100E+02  0.1100E+02
     -9.252  0.0000E+00  0.0000E+00  0.1100E+02  0.1100E+02
     -9.250  0.0000E+00  0.0000E+00  0.1100E+02  0.1100E+02
     -9.248  0.0000E+00  0.0000E+00  0.1100E+02  0.1100E+02
     -9.246  0.0000E+00  0.0000E+00  0.1100E+02  0.1100E+02
     -9.244  0.0000E+00  0.0000E+00  0.1100E+02  0.1100E+02
     -9.242  0.0000E+00  0.0000E+00  0.1100E+02  0.1100E+02
     -9.240  0.0000E+00  0.0000E+00  0.1100E+02  0.1100E+02
     -9.238  0.0000E+00  0.0000E+00  0.1100E+02  0.1100E+02
     -9.236  0.0000E+00  0.0000E+00  0.1100E+02  0.1100E+02
     -9.234  0.0000E+00  0.0000E+00  0.1100E+02  0.1100E+02
     -9.232  0.0000E+00  0.0000E+00  0.1100E+02  0.1100E+02
     -9.230  0.0000E+00  0.0000E+00  0.1100E+02  0.1100E+02
     -9.228  0.0000E+00  0.0000E+00  0.1100E+02  0.1100E+02
     -9.226  0.0000E+00  0.0000E+00  0.1100E+02  0.1100E+02
     -9.224  0.0000E+00  0.0000E+00  0.1100E+02  0.1100E+02
     -9.222  0.0000E+00  0.0000E+00  0.1100E+02  0.1100E+02
     -9.220  0.0000E+00  0.0000E+00  0.1100E+02  0.1100E+02
     -9.218  0.0000E+00  0.0000E+00  0.1100E+02  0.1100E+02
     -9.216  0.0000E+00  0.0000E+00  0.1100E+02  0.1100E+02
     -9.214  0.0000E+00  0.0000E+00  0.1100E+02  0.1100E+02
     -9.212  0.0000E+00  0.0000E+00  0.1100E+02  0.1100E+02
     -9.210  0.0000E+00  0.0000E+00  0.1100E+02  0.1100E+02
     -9.208  0.0000E+00  0.0000E+00  0.1100E+02  0.1100E+02
     -9.206  0.0000E+00  0.0000E+00  0.1100E+02  0.1100E+02
     -9.204  0.0000E+00  0.0000E+00  0.1100E+02  0.1100E+02
     -9.202  0.0000E+00  0.0000E+00  0.1100E+02  0.1100E+02
     -9.200  0.0000E+00  0.0000E+00  0.1100E+02  0.1100E+02
     -9.198  0.0000E+00  0.0000E+00  0.1100E+02  0.1100E+02
     -9.196  0.0000E+00  0.0000E+00  0.1100E+02  0.1100E+02
     -9.194  0.0000E+00  0.0000E+00  0.1100E+02  0.1100E+02
     -9.192  0.0000E+00  0.0000E+00  0.1100E+02  0.1100E+02
     -9.190  0.0000E+00  0.0000E+00  0.1100E+02  0.1100E+02
     -9.188  0.0000E+00  0.0000E+00  0.1100E+02  0.1100E+02
     -9.186  0.0000E+00  0.0000E+00  0.1100E+02  0.1100E+02
     -9.184  0.0000E+00  0.0000E+00  0.1100E+02  0.1100E+02
     -9.182  0.0000E+00  0.0000E+00  0.1100E+02  0.1100E+02
     -9.180  0.0000E+00  0.0000E+00  0.1100E+02  0.1100E+02
     -9.178  0.0000E+00  0.0000E+00  0.1100E+02  0.1100E+02
     -9.176  0.0000E+00  0.0000E+00  0.1100E+02  0.1100E+02
     -9.174  0.0000E+00  0.0000E+00  0.1100E+02  0.1100E+02
     -9.172  0.0000E+00  0.0000E+00  0.1100E+02  0.1100E+02
     -9.170  0.0000E+00  0.0000E+00  0.1100E+02  0.1100E+02
     -9.168  0.0000E+00  0.0000E+00  0.1100E+02  0.1100E+02
     -9.166  0.0000E+00  0.0000E+00  0.1100E+02  0.1100E+02
     -9.164  0.0000E+00  0.0000E+00  0.1100E+02  0.1100E+02
     -9.162  0.0000E+00  0.0000E+00  0.1100E+02  0.1100E+02
     -9.160  0.0000E+00  0.0000E+00  0.1100E+02  0.1100E+02
     -9.158  0.0000E+00  0.0000E+00  0.1100E+02  0.1100E+02
     -9.156  0.0000E+00  0.0000E+00  0.1100E+02  0.1100E+02
     -9.154  0.0000E+00  0.0000E+00  0.1100E+02  0.1100E+02
     -9.152  0.0000E+00  0.0000E+00  0.1100E+02  0.1100E+02
     -9.150  0.0000E+00  0.0000E+00  0.1100E+02  0.1100E+02
     -9.148  0.0000E+00  0.0000E+00  0.1100E+02  0.1100E+02
     -9.146  0.0000E+00  0.0000E+00  0.1100E+02  0.1100E+02
     -9.144  0.0000E+00  0.0000E+00  0.1100E+02  0.1100E+02
     -9.142  0.0000E+00  0.0000E+00  0.1100E+02  0.1100E+02
     -9.140  0.0000E+00  0.0000E+00  0.1100E+02  0.1100E+02
     -9.138  0.0000E+00  0.0000E+00  0.1100E+02  0.1100E+02
     -9.136  0.0000E+00  0.0000E+00  0.1100E+02  0.1100E+02
     -9.134  0.0000E+00  0.0000E+00  0.1100E+02  0.1100E+02
     -9.132  0.0000E+00  0.0000E+00  0.1100E+02  0.1100E+02
     -9.130  0.0000E+00  0.0000E+00  0.1100E+02  0.1100E+02
     -9.128  0.0000E+00  0.0000E+00  0.1100E+02  0.1100E+02
     -9.126  0.0000E+00  0.0000E+00  0.1100E+02  0.1100E+02
     -9.124  0.0000E+00  0.0000E+00  0.1100E+02  0.1100E+02
     -9.122  0.0000E+00  0.0000E+00  0.1100E+02  0.1100E+02
     -9.120  0.0000E+00  0.0000E+00  0.1100E+02  0.1100E+02
     -9.118  0.0000E+00  0.0000E+00  0.1100E+02  0.1100E+02
     -9.116  0.0000E+00  0.0000E+00  0.1100E+02  0.1100E+02
     -9.114  0.0000E+00  0.0000E+00  0.1100E+02  0.1100E+02
     -9.112  0.0000E+00  0.0000E+00  0.1100E+02  0.1100E+02
     -9.110  0.0000E+00  0.0000E+00  0.1100E+02  0.1100E+02
     -9.108  0.0000E+00  0.0000E+00  0.1100E+02  0.1100E+02
     -9.106  0.0000E+00  0.0000E+00  0.1100E+02  0.1100E+02
     -9.104  0.0000E+00  0.0000E+00  0.1100E+02  0.1100E+02
     -9.102  0.0000E+00  0.0000E+00  0.1100E+02  0.1100E+02
     -9.100  0.0000E+00  0.0000E+00  0.1100E+02  0.1100E+02
     -9.098  0.0000E+00  0.0000E+00  0.1100E+02  0.1100E+02
     -9.096  0.0000E+00  0.0000E+00  0.1100E+02  0.1100E+02
     -9.094  0.0000E+00  0.0000E+00  0.1100E+02  0.1100E+02
     -9.092  0.0000E+00  0.0000E+00  0.1100E+02  0.1100E+02
     -9.090  0.0000E+00  0.0000E+00  0.1100E+02  0.1100E+02
     -9.088  0.0000E+00  0.0000E+00  0.1100E+02  0.1100E+02
     -9.086  0.0000E+00  0.0000E+00  0.1100E+02  0.1100E+02
     -9.084  0.0000E+00  0.0000E+00  0.1100E+02  0.1100E+02
     -9.082  0.0000E+00  0.0000E+00  0.1100E+02  0.1100E+02
     -9.080  0.0000E+00  0.0000E+00  0.1100E+02  0.1100E+02
     -9.078  0.0000E+00  0.0000E+00  0.1100E+02  0.1100E+02
     -9.076  0.0000E+00  0.0000E+00  0.1100E+02  0.1100E+02
     -9.074  0.0000E+00  0.0000E+00  0.1100E+02  0.1100E+02
     -9.072  0.0000E+00  0.0000E+00  0.1100E+02  0.1100E+02
     -9.070  0.0000E+00  0.0000E+00  0.1100E+02  0.1100E+02
     -9.068  0.0000E+00  0.0000E+00  0.1100E+02  0.1100E+02
     -9.066  0.0000E+00  0.0000E+00  0.1100E+02  0.1100E+02
     -9.064  0.0000E+00  0.0000E+00  0.1100E+02  0.1100E+02
     -9.062  0.0000E+00  0.0000E+00  0.1100E+02  0.1100E+02
     -9.060  0.0000E+00  0.0000E+00  0.1100E+02  0.1100E+02
     -9.058  0.0000E+00  0.0000E+00  0.1100E+02  0.1100E+02
     -9.056  0.0000E+00  0.0000E+00  0.1100E+02  0.1100E+02
     -9.054  0.0000E+00  0.0000E+00  0.1100E+02  0.1100E+02
     -9.052  0.0000E+00  0.0000E+00  0.1100E+02  0.1100E+02
     -9.050  0.0000E+00  0.0000E+00  0.1100E+02  0.1100E+02
     -9.048  0.0000E+00  0.0000E+00  0.1100E+02  0.1100E+02
     -9.046  0.0000E+00  0.0000E+00  0.1100E+02  0.1100E+02
     -9.044  0.0000E+00  0.0000E+00  0.1100E+02  0.1100E+02
     -9.042  0.0000E+00  0.0000E+00  0.1100E+02  0.1100E+02
     -9.040  0.0000E+00  0.0000E+00  0.1100E+02  0.1100E+02
     -9.038  0.0000E+00  0.0000E+00  0.1100E+02  0.1100E+02
     -9.036  0.0000E+00  0.0000E+00  0.1100E+02  0.1100E+02
     -9.034  0.0000E+00  0.0000E+00  0.1100E+02  0.1100E+02
     -9.032  0.0000E+00  0.0000E+00  0.1100E+02  0.1100E+02
     -9.030  0.0000E+00  0.0000E+00  0.1100E+02  0.1100E+02
     -9.028  0.0000E+00  0.0000E+00  0.1100E+02  0.1100E+02
     -9.026  0.0000E+00  0.0000E+00  0.1100E+02  0.1100E+02
     -9.024  0.0000E+00  0.0000E+00  0.1100E+02  0.1100E+02
     -9.022  0.0000E+00  0.0000E+00  0.1100E+02  0.1100E+02
     -9.020  0.0000E+00  0.0000E+00  0.1100E+02  0.1100E+02
     -9.018  0.0000E+00  0.0000E+00  0.1100E+02  0.1100E+02
     -9.016  0.0000E+00  0.0000E+00  0.1100E+02  0.1100E+02
     -9.014  0.0000E+00  0.0000E+00  0.1100E+02  0.1100E+02
     -9.012  0.0000E+00  0.0000E+00  0.1100E+02  0.1100E+02
     -9.010  0.0000E+00  0.0000E+00  0.1100E+02  0.1100E+02